2
 energy: -0.982686172288 gnorm: 0.000052741126 xtb: 6.6.0 (conda-forge)
H            0.00000000000000        0.00000000000000       -0.03838566114592
H            0.00000000000000        0.00000000000000        0.73838566114592
