2
 energy: -0.979296996785 gnorm: 0.072684535000 xtb: 6.6.0 (conda-forge)
H            0.00000000000000        0.00000000000000        0.00000000000000
H            0.00000000000000        0.00000000000000        0.70000000000000
2
 energy: -0.982590335268 gnorm: 0.010468544848 xtb: 6.6.0 (conda-forge)
H            0.00000000000000        0.00000000000000       -0.03139027819239
H            0.00000000000000        0.00000000000000        0.73139027819239
2
 energy: -0.982680731641 gnorm: 0.002436644023 xtb: 6.6.0 (conda-forge)
H            0.00000000000000        0.00000000000000       -0.03667099577917
H            0.00000000000000        0.00000000000000        0.73667099577917
2
 energy: -0.982686163802 gnorm: 0.000109140134 xtb: 6.6.0 (conda-forge)
H            0.00000000000000        0.00000000000000       -0.03827298185802
H            0.00000000000000        0.00000000000000        0.73827298185802
2
 energy: -0.982686172288 gnorm: 0.000052741126 xtb: 6.6.0 (conda-forge)
H            0.00000000000000        0.00000000000000       -0.03838566114592
H            0.00000000000000        0.00000000000000        0.73838566114592
